1401
 Atoms. Timestep: 0
H -0.627267 -4.38431 6.7878
O -0.71396 -4.0932 5.88007
O -1.49754 -4.70815 7.02013
H 7.41473 -9.02648 0.104633
O 7.77562 -9.83145 0.476146
O 6.5196 -8.98699 0.441414
H -21.5761 -3.09581 -5.0596
O -22.2455 -3.10496 -4.3755
O -20.9329 -2.45446 -4.75748
H 16.6135 0.325004 -2.46355
O 16.8934 -0.583904 -2.57226
O 17.051 0.616768 -1.66373
H 17.7832 -1.34278 0.674245
O 18.6404 -1.62353 0.353941
O 17.9642 -0.552951 1.18376
H -5.20947 2.9287 -5.7464
O -5.0341 2.77499 -6.67476
O -5.08602 2.07372 -5.33408
H -0.559002 4.49221 3.87075
O -0.194529 4.80157 3.04148
O 0.070351 3.84142 4.18159
H 9.51175 1.79155 -0.856498
O 9.84839 0.897565 -0.7957
O 10.0268 2.19493 -1.55526
H 19.6285 2.81474 -4.12656
O 19.9232 2.42007 -3.30583
O 19.4586 2.07011 -4.70355
H 22.7854 -0.460086 3.38538
O 23.2413 -1.29151 3.51631
O 22.575 -0.446184 2.45169
H 18.4328 -11.681 -2.39743
O 19.3606 -11.9146 -2.36832
O 18.062 -12.254 -3.06854
H -22.5791 1.74916 -5.4999
O -22.7011 1.835 -4.55439
O -21.8749 1.10766 -5.59376
H 4.35385 -10.2645 -4.90838
O 5.16726 -10.2903 -4.40446
O 4.15817 -11.1826 -5.09539
H -3.39916 -10.0237 6.58901
O -2.69406 -9.78543 5.98711
O -3.37369 -9.34914 7.26761
H 11.7781 -5.26823 -8.00355
O 11.4713 -4.78706 -7.23507
O 12.7275 -5.14614 -7.99987
H 11.1933 -3.10304 -9.69188
O 11.7099 -3.11925 6.82674
O 11.6339 -3.72395 -9.11173
H 8.99074 -10.415 -9.39702
O 9.00511 -10.6067 6.98957
O 9.90222 -10.222 -9.17752
H -3.0032 -5.5517 7.30339
O -3.01519 -5.03305 -9.21647
O -3.68181 -5.15883 6.75441
H 0.330511 -11.3351 -5.53603
O -0.237313 -12.0698 -5.30361
O 0.55964 -11.4894 -6.4525
H -11.9117 -3.25815 -2.31592
O -11.9624 -2.41842 -1.85929
O -12.7746 -3.36648 -2.71573
H -4.08889 0.410381 -5.41033
O -3.9785 -0.335404 -6.00012
O -3.67966 0.131245 -4.59128
H -0.623042 -1.6176 -3.64922
O -0.269886 -2.3331 -3.12047
O 0.073247 -0.960866 -3.66005
H 22.0577 -9.72186 -0.141054
O 21.481 -9.00193 -0.396868
O 22.9323 -9.43271 -0.400963
H -16.8591 -11.5166 4.54753
O -16.4683 -11.8878 3.75651
O -17.7148 -11.9403 4.61413
H -15.6264 -6.60936 -7.0309
O -15.0016 -6.21169 -6.42456
O -15.0813 -7.02233 -7.70065
H -14.4544 -10.2907 -8.9623
O -14.6255 -10.6778 -8.10372
O -15.2125 -10.5374 -9.49208
H -12.4787 -4.89875 5.21657
O -11.6617 -5.29221 4.91026
O -12.9945 -5.63754 5.53968
H -4.00699 -7.58057 2.9645
O -3.41489 -8.30428 3.16914
O -3.43094 -6.82532 2.84616
H 11.4295 -10.0809 -5.8794
O 11.5438 -10.1728 -4.9335
O 11.6005 -9.15528 -6.05302
H -10.1641 -7.94206 -1.13785
O -10.1792 -6.98502 -1.14692
O -9.42464 -8.17569 -1.69897
H 8.70243 -2.08963 1.92811
O 8.7231 -1.23571 2.36011
O 8.29289 -2.67228 2.56766
H -10.4053 2.28112 1.585
O -10.8012 2.54523 0.75449
O -9.63916 2.84757 1.67653
H 18.3409 -5.82872 7.05272
O 18.9169 -5.26095 -9.75956
O 18.933 -6.32171 6.48471
H -8.13742 -11.9046 3.84282
O -7.32526 -12.0651 4.32332
O -8.03501 -11.0222 3.4864
H 17.3316 4.71558 -0.043424
O 17.7967 -12.3013 0.734694
O 17.6303 -12.0306 -0.745488
H 22.3412 -11.3008 -3.50085
O 23.2351 -11.616 -3.63472
O 22.4323 -10.5769 -2.88118
H -5.11061 -5.45364 -4.41398
O -5.10843 -6.16898 -3.77795
O -5.35285 -5.86911 -5.24159
H 5.47478 -3.12682 -6.98364
O 4.94771 -2.50377 -6.48341
O 4.93895 -3.91914 -7.02058
H 16.343 -6.78918 -1.26535
O 16.379 -7.36685 -0.502965
O 15.6426 -6.16875 -1.06349
H -13.9265 -0.8814 6.55229
O -14.3972 -0.081564 6.31807
O -14.1412 -1.49955 5.8537
H -13.585 -7.476 5.71922
O -12.9327 -8.09707 5.39516
O -14.3406 -8.01808 5.94609
H -19.9467 2.88821 -8.67698
O -19.4688 2.49766 -9.40859
O -19.5614 2.48786 -7.89756
H 20.4732 -5.42347 0.5803
O 20.6501 -4.49785 0.412377
O 19.5924 -5.43539 0.954905
H 1.34379 -12.0862 -7.83239
O 1.05432 4.43085 -8.25755
O 2.27715 -12.0287 -8.03675
H -2.11857 -2.84305 0.974202
O -2.24455 -3.23079 0.108163
O -2.99432 -2.56477 1.24226
H 3.28526 -1.70015 -9.64954
O 2.50143 -1.79745 -9.10883
O 3.99847 -1.5901 -9.02068
H -19.4676 -6.43298 -8.8772
O -18.8797 -6.52051 -8.12684
O -19.9705 -7.24739 -8.88437
H -1.95419 -4.80051 -1.32486
O -1.27418 -4.82667 -1.99801
O -2.53891 -5.52535 -1.54611
H 0.476975 2.3529 -4.83366
O 0.975275 3.05891 -4.42199
O -0.371641 2.74569 -5.03812
H -10.8853 -10.0654 -4.83328
O -11.0657 -10.8682 -5.32236
O -9.93385 -9.96873 -4.87305
H 13.3956 0.515536 -7.9041
O 12.5243 0.17243 -8.1024
O 13.9648 -0.254012 -7.91489
H 4.00724 -0.75985 -6.15385
O 4.12394 -0.001831 -6.72658
O 3.13268 -0.646946 -5.78152
H -22.4745 1.27642 -0.168326
O -22.6161 2.14495 0.20828
O -21.5318 1.13093 -0.088328
H -15.4701 -8.98457 -2.50843
O -16.014 -9.59768 -3.00282
O -15.9689 -8.16763 -2.50806
H 16.692 -9.83182 -9.59719
O 17.0822 -9.3166 -8.89117
O 17.4343 -10.2708 7.31172
H -11.6241 -0.1746 4.51108
O -12.2615 -0.532938 5.12872
O -10.7827 -0.25654 4.96004
H -16.0854 -9.00021 5.70243
O -15.9612 -8.45822 4.92329
O -16.3845 -9.84367 5.36286
H 12.5166 -4.93249 1.83911
O 11.7503 -4.65867 1.33496
O 12.1626 -5.20064 2.68708
H -15.0624 1.75385 6.59949
O -15.0856 2.6798 6.35801
O -15.4688 1.72142 -9.85877
H 3.91404 4.29644 2.61827
O 4.44579 4.68917 1.92599
O 4.51681 4.19349 3.35469
H 3.9827 3.73605 6.85498
O 4.49398 4.33828 6.31447
O 3.93521 4.16275 -9.61379
H 6.57659 3.8691 3.90277
O 7.34263 3.40704 3.56231
O 6.62649 3.75011 4.85124
H -9.1208 1.91321 -8.37292
O -8.77987 2.20888 -9.21706
O -9.15132 2.70493 -7.83581
H 12.765 -9.47052 5.08203
O 13.5757 -9.11398 5.44511
O 12.164 -9.5059 5.82616
H 23.0491 -7.13862 -7.89802
O 22.6219 -7.48636 -7.11522
O -22.3933 -6.65508 -7.56425
H 17.3027 -8.25364 -7.30649
O 16.8912 -8.6887 -6.55973
O 18.2355 -8.44639 -7.21239
H -13.1609 -8.42607 -4.47307
O -13.7296 -8.9373 -3.89737
O -12.6307 -9.07983 -4.92893
H 21.5592 4.67005 -1.20284
O 21.7315 -11.942 -0.586945
O 22.0421 4.91371 -1.9926
H 5.50773 -11.967 0.562586
O 5.16603 -11.0758 0.636033
O 6.45897 -11.8608 0.572825
H -5.96837 2.1564 4.49991
O -5.08095 1.91718 4.76729
O -5.92879 2.19541 3.54432
H -21.6773 -2.80464 3.97173
O -21.1994 -3.63397 3.96735
O -21.4759 -2.41608 4.82302
H 11.8975 -0.417082 4.33123
O 12.1438 -1.28091 4.66194
O 12.0358 -0.473695 3.38576
H -21.978 -8.08228 1.88789
O -21.484 -7.52825 1.28348
O -22.6726 -7.51416 2.22106
H -9.69601 -0.197007 -2.2169
O -10.5047 -0.363857 -1.7328
O -9.43715 -1.05447 -2.55451
H 5.28568 1.33337 7.16847
O 4.86328 2.16425 6.9506
O 5.96151 1.22501 6.49934
H 2.54799 0.199243 3.0358
O 2.56608 1.05925 2.61593
O 2.66599 0.384503 3.96746
H 10.9276 -0.971642 -7.97533
O 10.3821 -1.15493 -7.21043
O 11.0433 -1.82306 -8.39715
H 10.9519 -10.0616 3.02891
O 11.7476 -10.0384 3.56045
O 11.2436 -9.82111 2.14954
H -2.0748 -8.45719 -3.7337
O -1.3362 -7.92236 -4.02465
O -1.8992 -8.62558 -2.80793
H 2.15369 4.1345 -3.37206
O 1.86215 4.99681 -3.076
O 2.99945 4.29742 -3.78965
H 15.0091 -8.1246 6.03419
O 14.977 -7.18469 6.21245
O 15.5162 -8.48928 6.7595
H 21.8638 -3.83567 4.33699
O 22.7333 -3.63624 3.99009
O 21.5966 -4.62927 3.87324
H -5.0525 3.24158 -8.58778
O -4.95969 4.19426 -8.59328
O -4.29203 2.92356 -9.07438
H -7.3115 3.76591 -3.97379
O -6.63285 3.52178 -4.60313
O -7.9981 3.11003 -4.09475
H -6.15353 -0.841837 3.85022
O -5.87432 -1.02515 4.74725
O -6.387 0.086434 3.8565
H 13.4024 -11.644 -2.13255
O 13.3915 -10.6937 -2.24684
O 13.9959 -11.9608 -2.81338
H 8.8136 -1.3541 6.72017
O 8.26213 -1.58129 -9.85545
O 9.5084 -2.01248 6.72535
H 1.71242 -0.060565 -4.49027
O 2.37674 0.167502 -3.83996
O 1.18485 0.732746 -4.5828
H 19.1851 -0.022297 3.13144
O 19.6508 0.161786 2.31569
O 19.8533 0.056042 3.81225
H -6.2994 2.78915 -1.54149
O -6.66313 1.91979 -1.37371
O -6.58567 3.00173 -2.4298
H -16.948 -10.6233 -4.20346
O -17.113 -10.2363 -5.06328
O -17.4487 -11.4391 -4.20746
H -0.65141 -7.07935 0.91114
O 0.2312 -6.86514 1.21338
O -1.21891 -6.45896 1.36864
H -21.7922 4.22431 -6.61963
O -22.0858 3.46032 -6.12329
O -20.9001 4.00661 -6.88988
H -17.5325 -7.79444 0.50815
O -17.3091 -8.66133 0.169326
O -16.8971 -7.20621 0.100229
H -11.6997 -11.0565 -9.08369
O -11.9622 -11.8854 -9.4839
O -12.513 -10.557 -9.01082
H -14.6104 -0.5578 -4.10916
O -13.9106 0.081395 -3.97529
O -14.3953 -0.978347 -4.94168
H -22.8764 -10.0138 4.74081
O -22.492 -9.15995 4.93955
O -22.3713 -10.6329 5.26786
H -3.99159 4.41661 -1.20819
O -4.82463 3.96757 -1.06455
O -4.11424 4.89304 -2.0293
H 7.55624 -2.59169 -8.47425
O 7.92581 -3.40814 -8.81049
O 6.76728 -2.86114 -8.00396
H -17.4491 2.25973 2.39787
O -18.1481 2.66151 2.91384
O -16.8502 1.89397 3.04884
H 10.8372 -5.10246 4.24026
O 10.7526 -6.04719 4.11157
O 9.9361 -4.78935 4.31919
H 12.2932 -6.61365 -3.51656
O 11.4102 -6.60976 -3.88616
O 12.8013 -7.16167 -4.11466
H -13.9134 -7.59258 -9.01399
O -14.0132 -8.53989 -8.91977
O -14.0273 -7.43125 -9.9506
H -11.911 1.88877 -6.14131
O -11.5795 1.15162 -5.62854
O -12.2283 1.49304 -6.95306
H -18.5541 3.88896 -1.17318
O -19.0005 4.67223 -0.851557
O -19.1007 3.58095 -1.89604
H -13.0613 -7.65611 -1.35096
O -13.3371 -7.75087 -2.26267
O -12.1799 -8.02849 -1.32692
H 7.13383 3.86615 6.55912
O 7.79618 3.1878 6.42734
O 6.96413 3.85609 -9.82318
H -6.0883 -6.74936 1.16534
O -6.22129 -7.47986 0.561246
O -5.52538 -7.10574 1.85262
H 3.69733 -5.58594 6.02477
O 3.2278 -5.79024 6.8335
O 4.59256 -5.88441 6.18508
H -15.7927 -5.08613 -3.45081
O -15.619 -4.40867 -2.7973
O -16.1647 -5.81247 -2.95046
H -21.9295 -7.59834 -4.46662
O -21.3243 -8.04955 -5.05511
O -22.096 -6.75731 -4.89229
H 3.56213 -4.89072 -5.66402
O 3.46221 -4.20693 -5.00169
O 4.23693 -5.47036 -5.31063
H 19.8702 1.51402 1.01271
O 20.0177 2.16673 1.69714
O 18.9628 1.65191 0.741082
H 7.63856 -3.64862 -2.41845
O 7.0696 -3.22955 -3.06412
O 7.50959 -3.13921 -1.61839
H -21.1181 -11.017 6.75517
O -20.8247 -10.2386 7.22876
O -21.7456 -11.4345 7.34522
H 12.1318 2.95551 -2.40782
O 12.6025 3.72583 -2.72615
O 12.82 2.32694 -2.18982
H 3.35242 -9.18097 -9.50749
O 2.90271 -9.34146 6.98719
O 3.2819 -8.23557 -9.37526
H -13.4023 1.66157 3.03064
O -12.8874 1.07377 3.58346
O -12.8284 2.41251 2.87904
H -18.3651 -4.13425 -4.13501
O -17.4307 -4.16198 -4.34079
O -18.432 -4.53458 -3.26812
H -13.9142 -11.6635 -3.43573
O -14.7303 -11.4519 -2.9823
O -13.2319 -11.2488 -2.90786
H -13.9122 -10.4887 0.073285
O -14.8676 -10.4349 0.098332
O -13.677 -10.1761 -0.800308
H 6.02349 -7.03359 6.86233
O 6.51842 -7.36946 6.11502
O 6.24812 -7.62214 -9.74127
H -17.3465 -1.07891 3.01872
O -18.2659 -0.904614 2.81748
O -17.081 -0.349678 3.57908
H -2.92485 3.74359 4.76616
O -3.29799 3.46229 3.93077
O -2.03959 4.03481 4.54767
H 5.99538 1.73815 -4.42227
O 6.14181 1.38472 -5.29969
O 6.79533 2.22452 -4.22287
H 11.4106 -8.63279 -9.94497
O 11.9481 -8.36522 -9.1995
O 10.9001 -7.85351 7.15955
H 2.69575 -7.23069 -0.15371
O 2.54126 -6.67846 0.612714
O 3.34371 -6.75023 -0.669013
H -18.6186 4.48661 -4.73489
O -18.347 3.85087 -5.39692
O -18.8835 3.9539 -3.98502
H -5.62231 -1.48935 -2.90744
O -4.84404 -0.932106 -2.90625
O -6.35561 -0.877588 -2.84224
H 15.2309 -3.16387 4.39259
O 15.9934 -3.72738 4.26109
O 15.5827 -2.37769 4.81023
H -15.2619 1.77774 0.14884
O -15.1122 2.61764 -0.285244
O -14.8078 1.85693 0.98776
H 6.19953 -7.12191 -2.68286
O 6.25662 -8.06573 -2.53395
O 7.07772 -6.79467 -2.48808
H -16.6618 -3.4725 5.20485
O -16.9332 -4.3822 5.32737
O -17.316 -3.10482 4.61069
H 14.8337 3.81875 6.32588
O 14.9285 4.00859 7.25925
O 15.0047 2.87976 6.25335
H 16.0332 -8.99379 3.75487
O 15.5526 -9.77781 3.48911
O 15.5163 -8.62716 4.47227
H -0.955937 -3.53123 4.36056
O -0.162806 -3.17821 3.95739
O -1.58793 -2.81375 4.3153
H -17.8296 -2.73831 -0.104459
O -17.5448 -2.78607 0.808147
O -17.512 -1.88893 -0.410851
H 20.3192 2.09777 -8.46853
O 21.1581 1.6391 -8.51342
O 20.5151 2.91154 -8.00418
H -1.89149 4.10307 -5.17574
O -2.4457 3.89315 -4.42406
O -2.50211 4.41049 -5.84571
H -19.5731 1.78809 0.411516
O -19.1805 1.88347 1.27929
O -19.1601 2.47236 -0.115225
H 13.3351 -1.0122 -5.43669
O 14.1518 -0.628121 -5.11776
O 13.2448 -0.677473 -6.3289
H -3.30873 -3.56481 -8.33214
O -4.22382 -3.30196 -8.23336
O -2.95724 -3.5496 -7.44194
H -22.5059 -11.2254 2.10665
O -22.4017 -10.7577 2.93524
O 22.9016 -10.8514 1.71762
H -20.4432 0.146501 -2.76898
O -20.3047 -0.431089 -2.01835
O -20.1982 -0.383089 -3.52774
H 12.301 -7.76869 -7.12171
O 12.1902 -6.84564 -7.34956
O 13.0662 -7.78373 -6.54678
H 18.8021 -11.1724 6.35079
O 18.7279 -12.125 6.40683
O 18.3451 -10.9433 5.54148
H -22.3649 2.47421 -9.92751
O -22.7506 1.71744 -9.48625
O -21.5205 2.59988 -9.49444
H -8.91691 1.5001 -4.42094
O -9.23272 1.0141 -3.65917
O -9.19746 0.977497 -5.17221
H -18.2736 -6.22518 -6.31693
O -18.3985 -5.68523 -5.5365
O -17.3268 -6.35631 -6.36901
H 6.41634 3.81083 -8.03707
O 6.52676 2.99028 -7.55674
O 7.12605 4.37064 -7.72217
H -0.100121 -8.06644 -9.20652
O -0.2445 -9.01136 -9.25669
O -0.692506 -7.7695 -8.51576
H -3.07192 -1.55936 3.9316
O -2.73198 -1.24446 3.09404
O -3.13952 -0.773496 4.47389
H -3.98647 3.11949 2.11337
O -3.29786 2.6018 1.69619
O -4.77264 2.93026 1.60115
H -13.7422 4.17745 0.6532
O -13.7122 -12.1901 0.646439
O -12.9123 3.90855 0.259226
H -2.36127 1.89011 -1.10178
O -2.2116 1.7385 -0.168587
O -2.73348 2.77091 -1.14514
H 2.05525 -9.6511 0.501174
O 2.13193 -8.73209 0.244715
O 1.63407 -9.62615 1.36037
H 17.2883 1.63587 0.021835
O 17.1828 2.56292 -0.191914
O 16.7439 1.50518 0.798262
H -18.9622 1.64227 6.1909
O -18.5399 0.83823 5.88858
O -18.9509 2.22066 5.42829
H 0.097767 0.775574 -1.98536
O 0.8627 0.877748 -1.41908
O -0.64519 1.01209 -1.43011
H 20.8202 2.12945 -1.95244
O 21.039 2.94332 -1.49859
O 20.5918 1.51811 -1.2522
H 3.71254 3.88695 -0.747808
O 3.22368 4.46221 -1.3363
O 4.35658 4.46022 -0.332086
H -5.88656 -10.491 1.12948
O -5.13257 -10.7276 1.6696
O -6.50282 -10.0879 1.74104
H -15.7528 -3.41173 -8.36065
O -14.9777 -3.35443 -8.91944
O -15.9889 -4.33927 -8.37223
H 1.69532 -10.0097 5.37494
O 1.12955 -10.3737 6.05585
O 1.31094 -9.15632 5.1744
H -17.1804 -0.283497 -3.23037
O -17.132 -0.202956 -2.27779
O -16.2766 -0.439738 -3.50418
H -6.59712 -1.05979 6.94595
O -6.5732 -1.40748 -9.48683
O -7.44755 -0.625387 6.88052
H -2.56585 -10.4301 -6.34035
O -1.91226 -10.9438 -5.86588
O -2.94577 -9.8538 -5.67718
H -5.97551 -7.24935 -6.30267
O -6.91296 -7.17984 -6.12212
O -5.9275 -7.63836 -7.17594
H -19.325 -1.65457 -4.4152
O -19.0914 -2.5782 -4.32249
O -18.6714 -1.18829 -3.89398
H -7.42855 -5.17888 -9.44462
O -7.47642 -5.56529 -8.57019
O -6.94542 -5.82105 7.35963
H 20.6217 -7.73299 -1.02272
O 19.8483 -7.85456 -1.57341
O 20.4218 -6.95943 -0.49559
H 6.91472 -2.13704 -0.290157
O 7.53219 -1.81284 0.365476
O 6.29655 -1.41686 -0.414448
H 8.90457 -0.362769 4.12699
O 8.68385 -0.627231 5.02006
O 9.83935 -0.55167 4.04486
H 11.1054 -3.28075 -6.17966
O 10.1833 -3.40384 -5.95425
O 11.444 -2.70126 -5.49718
H -12.0203 -0.756339 -0.671736
O -11.6903 -0.666968 0.222331
O -12.9721 -0.784701 -0.57453
H 8.62019 -6.29224 -2.01579
O 8.70143 -5.97208 -2.91419
O 8.75551 -5.5166 -1.47144
H 3.47876 -3.01072 5.28584
O 3.78638 -3.88298 5.53234
O 3.39644 -2.54173 6.1162
H -9.75409 2.28986 5.83515
O -8.8384 2.35308 6.1067
O -9.93847 1.3506 5.82961
H 21.8896 -0.34205 0.681285
O 21.1862 0.286853 0.842301
O 22.5683 0.165625 0.236347
H -19.8997 -11.4384 0.256719
O -20.8156 -11.2938 0.494366
O -19.4008 -11.0129 0.95401
H -10.6739 -6.20764 -3.88299
O -11.5742 -6.05121 -4.16794
O -10.6005 -5.73911 -3.05153
H 19.7697 -9.48395 -6.75801
O 20.3892 -8.89894 -6.32177
O 19.8039 -10.2932 -6.24792
H -9.52366 -2.55254 1.22084
O -9.99232 -1.75126 1.4544
O -9.13209 -2.84961 2.04222
H 19.546 -1.70985 -4.89747
O 19.7739 -0.882231 -5.321
O 18.7772 -2.02047 -5.37563
H -21.223 -5.71457 -6.33937
O -20.2849 -5.90472 -6.34576
O -21.284 -4.81805 -6.00955
H 19.1905 -2.58417 4.47865
O 19.039 -1.80271 3.94706
O 20.1077 -2.80794 4.32038
H 21.2571 -11.5893 4.93075
O 20.5514 -11.2456 5.47856
O 21.8624 -10.8547 4.83034
H 13.857 -11.2084 -6.38671
O 13.7965 -12.1377 -6.16555
O 13.0031 -10.8485 -6.14687
H -2.98113 -0.173995 -3.08532
O -2.8239 0.636658 -2.60121
O -2.11429 -0.568671 -3.18046
H -7.88274 -4.51335 -6.0984
O -8.65076 -4.57599 -6.66625
O -8.09436 -3.8094 -5.48529
H -11.1422 -6.89507 -9.36398
O -11.9962 -7.32598 -9.39739
O -10.7742 -7.15671 -8.51995
H -4.3898 -3.29422 5.83232
O -4.01947 -2.67436 5.20395
O -4.9968 -2.77125 6.35605
H 4.85656 -9.36008 1.12081
O 3.98053 -9.45746 0.747542
O 4.72712 -8.81701 1.89834
H -5.38476 -5.42917 4.48013
O -4.65736 -5.89134 4.06357
O -5.03166 -4.56424 4.68855
H 14.2182 -7.69048 -5.23269
O 14.925 -8.32699 -5.33969
O 14.6151 -6.97149 -4.74099
H -20.3968 0.112397 -6.17428
O -20.1338 -0.068767 -7.07664
O -20.0911 -0.646977 -5.67816
H 13.9803 2.98531 -6.41204
O 13.0527 3.06663 -6.63393
O 14.2072 2.08751 -6.65432
H 11.072 2.00496 5.14036
O 11.616 2.7925 5.13059
O 11.6669 1.29917 4.88709
H -5.17656 -2.95542 -5.30899
O -5.1886 -3.85051 -4.97
O -5.4815 -2.41786 -4.57805
H 10.4655 -0.802439 -0.475705
O 10.3082 -1.32975 0.307512
O 10.4705 -1.43514 -1.19396
H 8.87703 -9.14884 -5.51827
O 8.27298 -9.08163 -6.25775
O 9.63539 -9.61548 -5.8695
H -16.4983 -5.4975 3.04164
O -15.8795 -5.06695 2.45183
O -17.3293 -5.0481 2.8873
H -10.6082 4.43103 4.42215
O -9.86532 4.94853 4.11146
O -10.2441 3.56029 4.58178
H 15.61 1.53273 2.56084
O 14.8827 2.00605 2.15679
O 15.2014 1.00626 3.24798
H 1.34105 2.89078 5.33277
O 1.68326 2.00037 5.41214
O 2.1204 3.44584 5.3052
H 5.46973 -6.78774 -5.29164
O 5.72176 -6.73411 -4.36978
O 5.25236 -7.70994 -5.42776
H 19.6125 -6.25822 -4.33298
O 19.1163 -6.99463 -3.97561
O 18.9746 -5.7682 -4.85178
H -9.94583 -11.6203 -0.350926
O -10.1401 -10.9583 0.312586
O -9.1007 -11.3554 -0.713976
H -13.0368 -1.40399 -6.37742
O -12.3062 -1.05303 -5.86822
O -12.8174 -2.32661 -6.50739
H -4.37622 0.353464 -9.41236
O -4.3965 0.565622 -8.47919
O -5.28844 0.169496 -9.63652
H 20.4936 -9.65667 -9.35157
O 20.0123 -10.2985 -9.87365
O 20.2006 -9.80976 -8.45326
H 18.4833 -11.8968 2.1392
O 18.5724 -10.9504 2.02699
O 17.9568 -11.996 2.9324
H 14.4468 0.13508 4.64144
O 13.5131 -0.028145 4.50818
O 14.5273 0.317548 5.57763
H -8.19752 -3.50584 -1.02714
O -7.30028 -3.80931 -0.888904
O -8.50262 -3.25389 -0.155552
H -7.84537 -0.868735 -6.33417
O -7.31936 -0.17639 -6.73443
O -7.22419 -1.57871 -6.17199
H 20.2914 -1.55141 -9.87445
O 20.1257 -1.11333 6.61503
O 20.704 -2.38057 7.20802
H -11.9262 -10.5248 -2.21029
O -11.5772 -10.0657 -2.97427
O -11.1692 -10.6477 -1.63761
H -11.6452 -11.9476 -6.58463
O -11.4424 -11.6515 -7.47202
O -11.2053 4.53008 -6.50765
H 0.866127 -1.35013 -7.69065
O 1.14078 -2.13787 -7.22133
O -0.052981 -1.23517 -7.44928
H -7.90296 -9.321 2.56828
O -7.55091 -8.47675 2.8503
O -8.79482 -9.12525 2.28106
H 7.42461 -10.8293 3.38024
O 8.06563 -11.0357 4.06049
O 6.86133 -11.6021 3.33888
H 2.15613 -6.75691 -9.42629
O 1.82206 -5.94403 -9.047
O 1.44188 -7.38453 -9.31593
H 15.5625 -1.69789 -8.48898
O 16.3753 -1.79185 -7.99218
O 15.846 -1.61497 -9.39947
H -17.496 -0.006359 -0.249901
O -16.7385 0.513426 0.018831
O -18.2487 0.558926 -0.076327
H -5.64642 -4.74071 -0.516661
O -5.73585 -5.36189 0.206091
O -4.93434 -5.09391 -1.04996
H -8.8741 -10.5838 -9.13032
O -8.51993 -10.6592 7.3079
O -9.82373 -10.5869 -9.25038
H 17.9827 -5.33825 1.56935
O 17.7335 -5.26225 2.49038
O 17.2487 -4.95453 1.08959
H -11.1167 -4.98505 1.54839
O -10.6751 -4.14429 1.42865
O -10.9951 -5.44078 0.715478
H -8.85905 4.32878 -7.33912
O -8.03343 4.64206 -6.96975
O -9.0318 4.91726 -8.07403
H -0.19433 -12.0582 1.29922
O -0.993798 -11.6471 0.970412
O 0.155899 4.78743 0.547909
H 21.5 -7.68512 -5.58838
O 20.8656 -7.1201 -5.14724
O 22.271 -7.66884 -5.02132
H 20.3753 3.70611 2.85158
O 19.873 4.39211 2.41178
O 20.4953 4.03117 3.74386
H 1.94113 -9.4676 -4.20324
O 1.37113 -10.0471 -4.70871
O 2.8219 -9.65378 -4.52854
H -10.355 -6.19341 4.12798
O -10.3497 -5.98169 3.1945
O -9.43818 -6.36915 4.33944
H -9.94737 -4.9214 -7.76025
O -10.7688 -4.5052 -7.49886
O -10.1819 -5.46278 -8.514
H 7.87868 -4.82535 6.88058
O 8.75852 -5.19534 6.95276
O 7.42971 -5.11733 -9.65035
H 10.3528 3.7189 1.08733
O 9.78478 2.966 0.923801
O 10.5076 3.70208 2.03178
H -17.9149 -9.6131 -6.61974
O -17.7177 -8.67688 -6.64883
O -17.5352 -9.96349 -7.42552
H -7.17929 -11.6682 -0.862516
O -6.55995 -11.7332 -0.135589
O -7.17889 4.78393 -1.2569
H -0.312513 -0.634187 3.14913
O -0.339947 -0.706196 4.10323
O 0.619577 -0.574428 2.93968
H -6.12967 -8.55021 -0.96726
O -6.22837 -9.4184 -0.576443
O -6.71057 -8.56201 -1.72795
H -7.89514 -2.97606 3.48267
O -8.00506 -3.29329 4.37906
O -7.22322 -2.29755 3.54891
H -8.88085 -3.58949 5.99244
O -8.41371 -3.77793 6.80639
O -9.52077 -4.29697 5.91369
H -8.55378 -7.53492 -5.17455
O -9.07041 -6.92192 -4.65151
O -9.08875 -7.69764 -5.95145
H 1.95893 2.57051 1.68113
O 2.46934 3.36236 1.85047
O 1.20222 2.87526 1.18037
H -15.7654 -1.07045 -7.21995
O -14.8565 -0.908133 -6.96748
O -15.775 -1.983 -7.50874
H 2.22937 0.276936 5.84128
O 2.69419 -0.505372 6.13823
O 1.31034 0.101103 6.04302
H 9.80827 -7.53983 3.43881
O 10.2708 -8.37697 3.47801
O 8.96838 -7.70946 3.86549
H 15.2498 -5.55715 -3.93237
O 16.06 -5.10229 -4.16229
O 14.8475 -5.00617 -3.26094
H -19.8899 2.91359 -3.05842
O -20.7983 3.21526 -3.04688
O -19.9516 1.97272 -3.22335
H 14.9928 -5.47146 6.26605
O 14.8353 -4.99994 7.08403
O 15.9237 -5.33803 6.0876
H -14.5668 -11.7502 -6.53667
O -14.9174 -11.6656 -5.65002
O -13.637 -11.5408 -6.44809
H -19.2816 -10.1529 -2.48353
O -18.422 -10.2697 -2.88812
O -19.1708 -10.4726 -1.58814
H -0.239833 -10.7063 -9.72002
O -0.827516 -11.4535 -9.83237
O 0.345947 -10.9665 -9.00911
H 0.473591 -6.43261 -1.65428
O -0.101286 -6.7983 -0.981959
O 1.33878 -6.78684 -1.44885
H 0.822753 3.36794 -0.881593
O 0.257507 3.15151 -1.62314
O 1.71034 3.20526 -1.2009
H -9.55659 -0.705807 5.94946
O -9.42766 -1.65363 5.98475
O -10.1217 -0.512462 6.69746
H -15.5043 -7.8791 3.0091
O -15.8126 -8.11753 2.13483
O -15.7802 -6.96939 3.12105
H -14.8128 4.29127 5.57468
O -14.0933 4.81658 5.22444
O -15.6035 4.71138 5.23632
H 4.28849 4.10457 -5.34063
O 3.81326 3.49166 -5.90163
O 5.01201 3.59041 -4.98232
H 21.921 -7.66422 6.86872
O 22.2725 -7.17024 -9.71487
O 21.3644 -8.33253 7.26846
H -14.7764 -0.995035 -0.257315
O -14.7684 -1.22521 0.671766
O -14.7941 -0.03805 -0.267332
H 22.4537 0.146162 -9.25862
O 22.8757 -0.388556 -8.58615
O 21.6657 -0.343168 -9.49477
H -16.1178 -12.2914 -1.77483
O -16.9445 4.56922 -1.64162
O -15.5756 4.41916 -2.27048
H 7.06882 1.41134 -6.9462
O 7.98508 1.35173 -7.21664
O 6.63276 0.701615 -7.41776
H 11.1697 3.40349 -6.68979
O 10.9021 2.91919 -5.9087
O 10.5582 3.11972 -7.36932
H 5.91642 -1.98078 -4.17832
O 5.67715 -1.24488 -4.74174
O 5.10012 -2.22396 -3.74157
H -11.4451 3.39645 -0.560473
O -11.7509 3.38578 -1.46746
O -10.8013 4.10421 -0.532592
H 1.47676 -4.02006 -8.7626
O 0.80879 -4.03604 -9.44802
O 0.981299 -4.04558 -7.944
H -1.32253 -7.65808 -6.81803
O -1.10352 -8.20053 -6.06038
O -1.60335 -6.82357 -6.44257
H 10.7624 -11.6294 -0.92353
O 11.5084 -11.5769 -1.521
O 10.8937 4.87509 -0.447163
H -20.6477 -9.49467 -5.9823
O -20.8873 -10.2333 -5.4226
O -19.6954 -9.55155 -6.06014
H 14.8931 1.22789 7.23661
O 15.6883 1.04593 -9.587
O 14.1854 1.16095 -9.44667
H 17.5445 2.34842 4.43305
O 16.9711 2.23124 3.67561
O 18.217 1.67492 4.3314
H 2.01282 -6.04708 2.08867
O 1.78944 -6.4963 2.90386
O 2.16992 -5.13972 2.34993
H 20.274 -6.56824 4.95081
O 20.8315 -6.94394 5.6322
O 19.7296 -7.29846 4.65646
H -2.03633 1.20854 1.52224
O -1.41015 0.71596 2.05281
O -2.78609 0.6209 1.4286
H 9.85849 -4.19391 0.660773
O 9.32873 -3.46062 0.973618
O 9.39075 -4.9732 0.96106
H -19.9812 -0.917826 2.60801
O -20.5337 -0.159608 2.79804
O -20.4766 -1.66553 2.94239
H -10.0441 -8.56877 -7.17885
O -10.712 -8.95231 -6.61039
O -9.69798 -9.30974 -7.67621
H 19.9325 -4.22879 -8.57895
O 20.7799 -3.9746 -8.94433
O 20.1506 -4.73301 -7.7951
H 7.23547 -8.23915 4.30443
O 6.395 -7.93073 3.96571
O 7.23398 -9.18021 4.12941
H -6.69199 0.964553 -7.77208
O -6.12412 1.71886 -7.92951
O -7.56602 1.26638 -8.01945
H -3.99534 -0.496401 1.45743
O -4.5453 -0.938654 0.810756
O -4.43377 -0.654329 2.29353
H -10.5867 -9.27566 1.2025
O -11.436 -8.9908 1.53989
O -10.5046 -8.83535 0.356565
H 7.45726 -3.89076 4.03368
O 6.9164 -4.5594 3.6134
O 7.45214 -4.12621 4.96145
H 21.9371 -6.39702 2.81286
O 21.5256 -6.04366 2.02414
O 21.2066 -6.57678 3.40467
H -18.7919 4.98301 6.87089
O -18.9724 4.23238 -9.88752
O -19.6481 -11.9383 6.72646
H 11.4299 -9.16182 0.217541
O 10.7114 -8.61241 -0.095594
O 11.1434 -10.0572 0.037676
H -15.9459 1.55661 -8.11416
O -15.8649 0.630238 -7.88718
O -15.5698 2.02072 -7.36625
H -7.22434 2.6753 7.02931
O -6.49228 3.01331 -9.77914
O -6.81764 2.32301 6.23766
H 23.0793 4.91332 -9.16349
O 23.0139 4.12919 -9.70857
O -22.7966 4.5936 -8.32076
H -16.6581 -10.4841 0.453767
O -16.459 -11.0473 1.20171
O -16.5562 -11.0532 -0.309054
H -4.0951 -12.1083 -3.7949
O -4.40862 -11.2749 -4.14623
O -4.68328 4.56078 -4.17036
H -14.5252 -2.7289 -2.61278
O -14.3859 -2.01669 -3.23694
O -14.7691 -2.2897 -1.798
H -15.8826 1.11146 4.21429
O -15.099 1.17685 3.66845
O -15.6012 1.41875 5.07602
H -18.844 -5.49187 1.53207
O -18.4613 -6.35331 1.36573
O -19.4262 -5.3401 0.787548
H 2.08412 0.519953 -0.139604
O 2.06442 1.26406 0.462191
O 2.90983 0.616778 -0.614011
H 17.777 4.15687 -7.45043
O 17.1607 4.38606 -8.14604
O 18.6399 4.32073 -7.83079
H -18.6818 2.19698 -6.44328
O -19.1688 1.42665 -6.15062
O -17.8862 1.84168 -6.83936
H 10.3971 -6.09806 7.0543
O 11.0045 -5.91122 6.33844
O 10.8858 -5.8777 -9.47697
H -3.77999 -11.6219 -8.43715
O -3.27598 -11.1695 -7.76077
O -3.56229 -11.161 -9.24733
H 10.3401 1.96419 -4.40556
O 9.53248 2.45034 -4.23951
O 10.9894 2.37548 -3.83503
H 17.3985 4.03311 -4.32042
O 18.2426 3.58499 -4.26567
O 17.3892 4.42131 -5.19532
H -20.1587 -1.4727 -0.605262
O -20.2715 -0.887687 0.143911
O -19.2582 -1.78843 -0.529709
H -7.58268 0.425405 -0.285331
O -8.43661 0.207758 -0.659066
O -7.18402 -0.422153 -0.087988
H -11.4734 -8.84512 4.67897
O -11.8943 -8.55063 3.87127
O -10.7401 -8.24221 4.80107
H -6.74971 -10.7808 -7.0483
O -5.90053 -10.8281 -7.48748
O -7.34766 -10.4475 -7.71735
H -15.2711 -6.57589 -0.261465
O -14.9351 -5.79817 0.184043
O -14.4878 -7.04576 -0.547662
H -14.6813 2.8065 -5.9299
O -13.7817 2.48418 -5.87582
O -14.5941 3.71348 -6.22317
H -15.0304 2.75497 -3.20084
O -15.0959 1.82728 -2.9743
O -15.0989 2.77434 -4.15539
H 18.6981 3.41512 6.65814
O 19.6379 3.23547 6.63316
O 18.3659 3.07166 5.82871
H 13.2518 2.99852 1.40887
O 13.5893 3.66569 0.811164
O 13.0799 2.24059 0.850107
H -21.6196 1.50409 3.10537
O -22.1314 1.99611 2.46337
O -22.2271 0.846054 3.44324
H 16.8887 -11.8477 4.49894
O 16.2212 -11.9918 3.82821
O 16.7373 4.78313 5.14114
H -6.57307 2.39184 1.64527
O -6.88839 1.75017 1.00882
O -7.19127 3.1196 1.57875
H 4.74629 -3.77158 0.405299
O 4.14585 -3.29593 0.979278
O 5.41174 -3.1263 0.166483
H -5.76437 -8.1432 5.64995
O -4.93715 -8.6089 5.52717
O -5.59316 -7.25978 5.32362
H -6.10693 -8.40681 -9.06048
O -5.18855 -8.1391 -9.02682
O -6.31302 -8.44045 7.32966
H 20.2999 -2.7174 -0.127944
O 19.9179 -2.77851 -1.00346
O 21.0996 -2.20578 -0.250249
H -0.330556 -0.934963 6.03198
O -0.174643 -1.8678 6.17939
O -0.782433 -0.639333 6.82232
H -10.7462 -0.292664 -8.89355
O -10.1143 0.402857 -8.71152
O -11.5981 0.10271 -8.70871
H 20.6916 0.397511 5.15855
O 20.8023 1.34368 5.25214
O 21.5482 0.083178 4.86921
H 16.4161 -8.61815 0.896557
O 16.478 -8.42244 1.83149
O 15.4863 -8.79089 0.748635
H 20.3112 -11.8302 -5.34763
O 20.215 4.56055 -5.15932
O 20.8511 -11.4954 -4.63164
H 14.553 -12.2311 0.238134
O 15.4685 4.9021 0.033921
O 14.1152 -12.2168 -0.612955
H 22.2663 -3.62547 7.21416
O 22.0254 -3.75843 6.29734
O 23.1519 -3.98195 7.28377
H 8.78483 -12.1996 -7.05612
O 9.09403 -11.4526 -7.56868
O 9.58103 4.73657 -6.69328
H 15.7841 -9.73692 -2.71045
O 15.929 -10.5729 -2.26734
O 15.1719 -9.26778 -2.14363
H -13.397 -3.47578 -9.74383
O -13.5109 -2.52547 -9.75659
O -12.7265 -3.646 6.91881
H -3.62163 0.923381 5.26708
O -3.23796 1.80031 5.27307
O -3.50273 0.603294 6.16131
H 5.24636 1.76754 1.77623
O 4.85384 2.55314 2.15702
O 5.30155 1.14945 2.50503
H 3.48405 -3.2401 -3.28313
O 3.76198 -3.99914 -2.77044
O 2.55359 -3.14174 -3.08116
H -12.1576 -4.13061 -6.65764
O -12.8075 -4.2299 -7.35341
O -12.4396 -4.74165 -5.97693
H -18.5255 -2.84389 -8.48002
O -17.622 -3.11028 -8.64986
O -18.6544 -3.01362 -7.54684
H 14.4223 -4.41215 -8.46242
O 14.7274 -3.53224 -8.24136
O 15.1228 -4.99149 -8.16255
H -22.8544 2.17295 -2.7984
O 22.4027 1.99912 -2.77441
O -22.479 1.54776 -2.17837
H 2.09678 -11.0413 -1.86189
O 2.1429 -10.3234 -2.49336
O 1.94346 -10.6114 -1.02053
H -20.8334 -0.70379 6.08303
O -20.8054 -1.0789 6.96323
O -20.5858 0.212787 6.20479
H -18.1448 -5.97526 5.95728
O -18.5509 -6.80045 5.69191
O -18.4601 -5.82854 6.84908
H 16.0002 0.340705 -5.10465
O 16.6211 0.86821 -5.60713
O 16.239 0.494874 -4.19061
H -2.52007 -5.74628 -5.56275
O -2.44379 -4.79215 -5.56934
O -3.27352 -5.92291 -4.99941
H 9.00459 2.74967 3.21929
O 8.93101 2.02573 2.59742
O 9.42295 2.36348 3.98875
H 5.17097 -9.3734 -7.38689
O 4.47567 -9.35399 -8.04448
O 4.78622 -9.83928 -6.6445
H 4.98919 -11.3785 5.51925
O 5.81422 -11.2396 5.98431
O 4.61956 -10.5013 5.41908
H 6.89531 -9.6328 -3.40996
O 7.56047 -9.48115 -4.08137
O 7.36434 -10.0767 -2.7034
H 12.9774 3.78383 4.39825
O 13.7244 3.73299 4.99464
O 13.2872 3.37488 3.59016
H 1.81796 -7.15011 4.54666
O 2.38559 -6.67054 5.15002
O 0.9316 -6.98336 4.86726
H 7.82026 -8.444 -8.06197
O 6.95259 -8.81525 -7.90214
O 8.23638 -9.05819 -8.66683
H -15.9498 4.67563 2.1961
O -15.162 4.29092 1.812
O -16.6174 3.99565 2.10584
H 23.0642 -1.90349 -7.58637
O -22.591 -2.34896 -6.93596
O 23.1723 -2.4211 -8.38427
H 15.6547 -2.80275 -2.81379
O 15.7873 -3.00813 -1.88834
O 14.7863 -3.15152 -3.01494
H -5.29683 -11.9195 6.22358
O -4.85866 -11.0954 6.43624
O -4.60712 4.85541 5.85118
H -7.74925 -6.51383 3.38354
O -7.58606 -6.43467 2.44368
O -7.13018 -5.90518 3.7867
H 9.49962 -8.75946 -1.8195
O 8.88566 -9.30721 -1.33037
O 9.09924 -7.89001 -1.81805
H 15.9827 -9.65842 -5.5325
O 15.1117 -10.0429 -5.63146
O 16.1709 -9.72826 -4.5966
H -20.9406 -8.78137 -8.82153
O -20.9937 -9.15565 -7.94214
O -21.6896 -8.18778 -8.87529
H -2.01744 -9.09641 4.18797
O -1.22299 -9.42374 3.76614
O -1.79613 -8.20504 4.45764
H -13.0586 -8.89175 2.34311
O -13.7963 -8.47123 2.78493
O -13.4533 -9.60851 1.8464
H -17.6866 -6.9031 -2.67436
O -18.4939 -7.28698 -3.01643
O -17.981 -6.26237 -2.02703
H 7.39055 3.44918 -0.544515