LAMMPS (23 Jun 2022 - Update 4)
KOKKOS mode is enabled (src/KOKKOS/kokkos.cpp:106)
  will use up to 1 GPU(s) per node
WARNING: When using a single thread, the Kokkos Serial backend (i.e. Makefile.kokkos_mpi_only) gives better performance than the OpenMP backend (src/KOKKOS/kokkos.cpp:218)
  using 1 OpenMP thread(s) per MPI task
package kokkos
package kokkos newton on neigh half comm no

# REAX potential for high energy CHON systems
# .....

units           real

atom_style      charge
read_data       nptrepeat.data
Reading data file ...
  orthogonal box = (4.5899331 4.1518802 -285.15233) to (18.791369 16.449685 291.86033)
  1 by 1 by 1 MPI processor grid
  reading atoms ...
  40 atoms
  reading velocities ...
  40 velocities
  read_data CPU = 0.001 seconds

pair_style      reaxff lmp_control
WARNING: Ignoring inactive control parameter: simulation_name (src/REAXFF/reaxff_control.cpp:98)
WARNING: Ignoring inactive control parameter: energy_update_freq (src/REAXFF/reaxff_control.cpp:98)
WARNING: Support for writing native trajectories has been removed after LAMMPS version 8 April 2021 (src/REAXFF/reaxff_control.cpp:114)
WARNING: Ignoring inactive control parameter: traj_title (src/REAXFF/reaxff_control.cpp:98)
WARNING: Ignoring inactive control parameter: atom_info (src/REAXFF/reaxff_control.cpp:98)
WARNING: Ignoring inactive control parameter: atom_forces (src/REAXFF/reaxff_control.cpp:98)
WARNING: Ignoring inactive control parameter: atom_velocities (src/REAXFF/reaxff_control.cpp:98)
WARNING: Ignoring inactive control parameter: bond_info (src/REAXFF/reaxff_control.cpp:98)
WARNING: Ignoring inactive control parameter: angle_info (src/REAXFF/reaxff_control.cpp:98)
pair_coeff      * * CHONSMgPNaCuCl.ff C H O N

neigh_modify    every 10 delay 0 check no


fix mynpt all npt temp 30 30 100 iso 1 1 1000
fix             2 all qeq/reaxff 1 0.0 10.0 1e-6 reaxff

dump            dumpxyz all xyz 25 graph_dump.xyz
dump_modify     dumpxyz element C H O N
thermo 1000
variable mytemp equal temp
variable myvol equal vol
fix myat1 all ave/time 10 10 100 v_mytemp file temperature.dat
fix myat2 all ave/time 10 10 100 v_myvol file volume.dat
variable myeng equal etotal
fix myat3 all ave/time 10 10 100 v_myeng file energy.dat
variable myenthalpy equal enthalpy
fix myat4 all ave/time 10 10 100 v_myenthalpy file enthalpy.dat

timestep 0.25
run 40000

CITE-CITE-CITE-CITE-CITE-CITE-CITE-CITE-CITE-CITE-CITE-CITE-CITE

Your simulation uses code contributions which should be cited:

- pair reaxff command:

@Article{Aktulga12,
 author = {H. M. Aktulga, J. C. Fogarty, S. A. Pandit, A. Y. Grama},
 title = {Parallel reactive molecular dynamics: Numerical methods and algorithmic techniques},
 journal = {Parallel Computing},
 year =    2012,
 volume =  38,
 pages =   {245--259}
}

- fix qeq/reaxff command:

@Article{Aktulga12,
 author = {H. M. Aktulga, J. C. Fogarty, S. A. Pandit, A. Y. Grama},
 title = {Parallel reactive molecular dynamics: Numerical methods and algorithmic techniques},
 journal = {Parallel Computing},
 year =    2012,
 volume =  38,
 pages =   {245--259}
}

CITE-CITE-CITE-CITE-CITE-CITE-CITE-CITE-CITE-CITE-CITE-CITE-CITE

Neighbor list info ...
  update every 10 steps, delay 0 steps, check no
  max neighbors/atom: 2000, page size: 100000
  master list distance cutoff = 12
  ghost atom cutoff = 12
  binsize = 12, bins = 2 2 49
  2 neighbor lists, perpetual/occasional/extra = 2 0 0
  (1) pair reaxff/kk, perpetual
      attributes: half, newton off, ghost, kokkos_device
      pair build: half/bin/newtoff/ghost/kk/device
      stencil: full/ghost/bin/3d
      bin: kk/device
  (2) fix qeq/reaxff/kk, perpetual
      attributes: full, newton off, kokkos_device
      pair build: full/bin/kk/device
      stencil: full/bin/3d
      bin: kk/device
Per MPI rank memory allocation (min/avg/max) = 3.245 | 3.245 | 3.245 Mbytes
   Step          Temp          E_pair         E_mol          TotEng         Press          Volume    
         0   25.916755     -5854.2808      0             -5851.2679      31.352181      100773.23    
      1000   29.245788     -5853.1771      0             -5849.7773     -49.564274      102726.83    
      2000   31.123052     -5854.2413      0             -5850.6231     -76.406465      106019.25    
      3000   31.127636     -5852.6285      0             -5849.0098      16.995225      102740.5     
      4000   25.186675     -5853.1892      0             -5850.2612      77.362297      103046.89    
      5000   39.358755     -5852.9758      0             -5848.4002      77.0065        100621.83    
      6000   31.139039     -5854.1629      0             -5850.543      -70.221099      102196.2     
      7000   29.095972     -5853.8499      0             -5850.4675      75.810279      103214.43    
      8000   27.604458     -5854.9937      0             -5851.7846     -88.963385      105588.01    
      9000   33.276873     -5854.0615      0             -5850.193       67.17259       102883.36    
     10000   29.740936     -5854.4307      0             -5850.9732     -8.9220529      100077.65    
     11000   38.56392      -5853.9199      0             -5849.4368     -20.039982      102674.91    
     12000   25.765747     -5854.2629      0             -5851.2675     -23.300654      103172.5     
     13000   34.911422     -5854.0132      0             -5849.9547     -69.77758       103095.18    
     14000   28.443446     -5854.9412      0             -5851.6346      52.483251      103481.73    
     15000   32.030802     -5853.9582      0             -5850.2346     -41.089683      103208.82    
     16000   25.667593     -5854.6558      0             -5851.6719      78.122442      99186.495    
     17000   34.098531     -5854.4054      0             -5850.4414      92.046833      102440.52    
     18000   25.353424     -5854.155       0             -5851.2076      9.8079467      104505.73    
     19000   25.37717      -5854.1615      0             -5851.2113      86.506255      103023.86    
     20000   30.187148     -5853.0388      0             -5849.5295     -38.60735       102005.37    
     21000   31.323984     -5853.8996      0             -5850.2581      73.991298      101344.81    
     22000   25.970671     -5852.4534      0             -5849.4343     -36.855036      102247.49    
     23000   26.899498     -5852.7424      0             -5849.6153     -23.127645      102735.39    
     24000   30.604701     -5853.3848      0             -5849.827      -115.6505       104582.95    
     25000   32.258203     -5853.5373      0             -5849.7872      217.61471      101543.7     
     26000   25.246891     -5853.9373      0             -5851.0023     -109.28352      99790.176    
     27000   34.286174     -5854.1908      0             -5850.205      -104.87072      102047.42    
     28000   31.770094     -5854.8268      0             -5851.1335      96.043317      104153.28    
     29000   24.818311     -5854.1633      0             -5851.2781     -10.577658      103322.71    
     30000   31.296479     -5854.2973      0             -5850.659       38.685579      102727.64    
     31000   27.869607     -5854.5276      0             -5851.2877     -4.9595326      102115.36    
     32000   29.573239     -5853.8641      0             -5850.4262      4.8271135      100363.51    
     33000   27.189281     -5854.4582      0             -5851.2974     -22.699563      103335.38    
     34000   29.154114     -5853.9077      0             -5850.5185     -26.775208      105048.72    
     35000   30.044226     -5854.1259      0             -5850.6332      53.385777      104156.06    
     36000   29.35057      -5854.5167      0             -5851.1046     -111.73667      101420.32    
     37000   33.81852      -5853.9944      0             -5850.0629     -6.3732781      101768.68    
     38000   23.705691     -5853.8077      0             -5851.0519     -89.559858      102095.45    
     39000   29.72901      -5854.2373      0             -5850.7812      39.07235       104894.78    
     40000   29.009149     -5852.9206      0             -5849.5482     -23.333428      107371.06    
Loop time of 131.669 on 1 procs for 40000 steps with 40 atoms

Performance: 6.562 ns/day, 3.657 hours/ns, 303.792 timesteps/s
66.2% CPU use with 1 MPI tasks x 1 OpenMP threads

MPI task timing breakdown:
Section |  min time  |  avg time  |  max time  |%varavg| %total
---------------------------------------------------------------
Pair    | 89.984     | 89.984     | 89.984     |   0.0 | 68.34
Neigh   | 1.3945     | 1.3945     | 1.3945     |   0.0 |  1.06
Comm    | 0.97984    | 0.97984    | 0.97984    |   0.0 |  0.74
Output  | 0.059021   | 0.059021   | 0.059021   |   0.0 |  0.04
Modify  | 38.965     | 38.965     | 38.965     |   0.0 | 29.59
Other   |            | 0.2865     |            |       |  0.22

Nlocal:             40 ave          40 max          40 min
Histogram: 1 0 0 0 0 0 0 0 0 0
Nghost:            287 ave         287 max         287 min
Histogram: 1 0 0 0 0 0 0 0 0 0
Neighs:           2847 ave        2847 max        2847 min
Histogram: 1 0 0 0 0 0 0 0 0 0
FullNghs:         3618 ave        3618 max        3618 min
Histogram: 1 0 0 0 0 0 0 0 0 0

Total # of neighbors = 3618
Ave neighs/atom = 90.45
Neighbor list builds = 4000
Dangerous builds not checked
write_data sampling_end.data
System init for write_data ...
Total wall time: 0:02:11
